ITEM: TIMESTEP
0
ITEM: NUMBER OF ATOMS
34
ITEM: BOX BOUNDS pp pp pp
-24.0513 24.0513
-24.0513 24.0513
-24.0513 24.0513
ITEM: ATOMS id type x y z Cluster
2114 1 -1.71795 12.0257 1.71795 4
2128 1 -1.71795 15.4616 1.71795 4
2225 4 -3.4359 13.7436 3.4359 4
2212 4 -1.71795 12.0257 5.15385 4
2224 4 -5.15385 15.4616 5.15385 4
2239 2 -3.4359 17.1795 3.4359 4
2240 3 -1.71795 18.8974 5.15385 4
2323 4 -3.4359 13.7436 6.8718 4
2322 2 -5.15385 15.4616 8.58975 4
2337 3 -3.4359 17.1795 6.8718 4
2324 2 -1.71795 15.4616 8.58975 4
2419 2 -6.8718 13.7436 10.3077 3
2421 1 -3.4359 13.7436 10.3077 3
2433 2 -6.8718 17.1795 10.3077 3
2435 1 -3.4359 17.1795 10.3077 3
2517 2 -6.8718 13.7436 13.7436 3
2406 1 -5.15385 12.0257 12.0257 3
2519 3 -3.4359 13.7436 13.7436 3
2418 3 -8.58975 15.4616 12.0257 3
2531 4 -6.8718 17.1795 13.7436 3
2533 2 -3.4359 17.1795 13.7436 3
2422 1 -1.71795 15.4616 12.0257 3
2434 4 -5.15385 18.8974 12.0257 3
2518 3 -5.15385 15.4616 15.4616 3
4846 3 1.71795 12.0257 1.71795 4
4859 4 0.0 13.7436 0.0 4
4860 4 1.71795 15.4616 1.71795 4
4943 1 0.0 10.3077 3.4359 4
4944 4 1.71795 12.0257 5.15385 4
4959 4 3.4359 13.7436 3.4359 4
4958 1 1.71795 15.4616 5.15385 4
4971 1 0.0 17.1795 3.4359 4
5055 1 0.0 13.7436 6.8718 4
5069 2 0.0 17.1795 6.8718 4
