ITEM: TIMESTEP
0
ITEM: NUMBER OF ATOMS
17
ITEM: BOX BOUNDS pp pp pp
-24.0513 24.0513
-24.0513 24.0513
-24.0513 24.0513
ITEM: ATOMS id type x y z
4163 1 6.8718 10.3077 -24.0513
4165 2 10.3077 10.3077 -24.0513
4175 2 3.4359 13.7436 -24.0513
4164 1 8.58975 12.0257 -22.3334
4177 4 6.8718 13.7436 -24.0513
4179 2 10.3077 13.7436 -24.0513
4181 2 13.7436 13.7436 -24.0513
4176 4 5.15385 15.4616 -22.3334
4189 3 3.4359 17.1795 -24.0513
4178 4 8.58975 15.4616 -22.3334
4191 1 6.8718 17.1795 -24.0513
4193 4 10.3077 17.1795 -24.0513
4180 2 12.0257 15.4616 -22.3334
4195 3 13.7436 17.1795 -24.0513
4192 1 8.58975 18.8974 -22.3334
4205 3 6.8718 20.6154 -24.0513
4207 4 10.3077 20.6154 -24.0513
