ITEM: TIMESTEP
0
ITEM: NUMBER OF ATOMS
5466
ITEM: BOX BOUNDS pp pp pp
-24.0513 24.0513
-24.0513 24.0513
-24.0513 24.0513
ITEM: ATOMS id type x y z AtomicVolume CavityRadius MaxFaceOrder
1 3 -24.0513 -24.0513 -24.0513 20.2797739566 1.9206929511 6
2 2 -22.3334 -22.3334 -22.3334 20.2811020394 1.9207600332 6
3 2 -20.6154 -24.0513 -24.0513 20.2806593967 1.9207376727 6
4 3 -18.8974 -22.3334 -22.3334 20.2811020394 1.9207600332 6
5 4 -17.1795 -24.0513 -24.0513 20.2797739566 1.9206929511 6
6 1 -15.4616 -22.3334 -22.3334 20.2810282599 1.9207600332 6
7 2 -13.7436 -24.0513 -24.0513 20.2802166681 1.9207153121 6
8 1 -12.0257 -22.3334 -22.3334 20.2811389388 1.9207600332 6
9 2 -10.3077 -24.0513 -24.0513 20.2804380302 1.9207264918 6
10 3 -8.58975 -22.3334 -22.3334 20.2811389388 1.9207600328 6
11 3 -6.8718 -24.0513 -24.0513 20.2802166681 1.9207153111 6
12 3 -5.15385 -22.3334 -22.3334 20.281102048 1.9207600328 6
13 2 -3.4359 -24.0513 -24.0513 20.2802166681 1.9207153111 6
14 4 -1.71795 -22.3334 -22.3334 20.281102048 1.9207600328 6
15 3 -24.0513 -20.6154 -24.0513 20.2806593967 1.9207376727 6
16 3 -22.3334 -18.8974 -22.3334 20.2811020394 1.9207600332 6
17 4 -20.6154 -20.6154 -24.0513 20.2815448023 1.9207600332 6
18 3 -18.8974 -18.8974 -22.3334 20.2811020394 1.9207600332 6
19 2 -17.1795 -20.6154 -24.0513 20.2806593967 1.9207376727 6
20 1 -15.4616 -18.8974 -22.3334 20.2810282599 1.9207600332 6
21 4 -13.7436 -20.6154 -24.0513 20.2811020909 1.9207600332 6
22 4 -12.0257 -18.8974 -22.3334 20.2811389388 1.9207600332 6
23 3 -10.3077 -20.6154 -24.0513 20.2813234445 1.9207600332 6
24 3 -8.58975 -18.8974 -22.3334 20.2811389388 1.9207600328 6
25 1 -6.8718 -20.6154 -24.0513 20.2811020909 1.9207488528 6
26 1 -5.15385 -18.8974 -22.3334 20.281102048 1.9207600328 6
27 3 -3.4359 -20.6154 -24.0513 20.2811020909 1.9207488528 6
28 2 -1.71795 -18.8974 -22.3334 20.281102048 1.9207600328 6
29 2 -24.0513 -17.1795 -24.0513 20.2797739566 1.9206929511 6
30 1 -22.3334 -15.4616 -22.3334 20.2810282599 1.9207600332 6
31 1 -20.6154 -17.1795 -24.0513 20.2806593967 1.9207376727 6
32 3 -18.8974 -15.4616 -22.3334 20.2810282599 1.9207600332 6
33 3 -17.1795 -17.1795 -24.0513 20.2797739566 1.9206929511 6
34 2 -15.4616 -15.4616 -22.3334 20.2809544803 1.9207600332 6
35 3 -13.7436 -17.1795 -24.0513 20.2802166681 1.9207153121 6
36 4 -12.0257 -15.4616 -22.3334 20.2810651593 1.9207600332 6
37 3 -10.3077 -17.1795 -24.0513 20.2804380302 1.9207264918 6
38 3 -8.58975 -15.4616 -22.3334 20.2810651593 1.9207600328 6
39 1 -6.8718 -17.1795 -24.0513 20.2802166681 1.9207153111 6
40 4 -5.15385 -15.4616 -22.3334 20.2810282684 1.9207600328 6
41 2 -3.4359 -17.1795 -24.0513 20.2802166681 1.9207153111 6
42 4 -1.71795 -15.4616 -22.3334 20.2810282684 1.9207600328 6
43 2 -24.0513 -13.7436 -24.0513 20.2802166681 1.9207153121 6
45 3 -20.6154 -13.7436 -24.0513 20.2811020909 1.9207600332 6
47 3 -17.1795 -13.7436 -24.0513 20.2802166681 1.9207153121 6
49 2 -13.7436 -13.7436 -24.0513 20.2806593709 1.9207376721 6
51 1 -10.3077 -13.7436 -24.0513 20.2808807288 1.9207488523 6
53 1 -6.8718 -13.7436 -24.0513 20.2806593709 1.9207376718 6
55 2 -3.4359 -13.7436 -24.0513 20.2806593709 1.9207376718 6
44 4 -22.3334 -12.0257 -22.3334 20.2811389388 1.9207600332 6
57 2 -24.0513 -10.3077 -24.0513 20.2804380302 1.9207264918 6
46 1 -18.8974 -12.0257 -22.3334 20.2811389388 1.9207600332 6
59 2 -20.6154 -10.3077 -24.0513 20.2813234445 1.9207600332 6
48 1 -15.4616 -12.0257 -22.3334 20.2810651593 1.9207600332 6
61 3 -17.1795 -10.3077 -24.0513 20.2804380302 1.9207264918 6
63 3 -13.7436 -10.3077 -24.0513 20.2808807288 1.9207488523 6
50 3 -12.0257 -12.0257 -22.3334 20.2811758382 1.9207600332 6
65 3 -10.3077 -10.3077 -24.0513 20.2811020845 1.9207488523 6
52 3 -8.58975 -12.0257 -22.3334 20.2811758382 1.9207600328 6
67 4 -6.8718 -10.3077 -24.0513 20.2808807288 1.9207376719 6
54 2 -5.15385 -12.0257 -22.3334 20.2811389474 1.9207600328 6
69 3 -3.4359 -10.3077 -24.0513 20.2808807288 1.9207376719 6
56 3 -1.71795 -12.0257 -22.3334 20.2811389474 1.9207600328 6
58 2 -22.3334 -8.58975 -22.3334 20.2811389388 1.9207600328 6
71 3 -24.0513 -6.8718 -24.0513 20.2802166681 1.9207153111 6
60 3 -18.8974 -8.58975 -22.3334 20.2811389388 1.9207600328 6
73 1 -20.6154 -6.8718 -24.0513 20.2811020909 1.9207488528 6
62 3 -15.4616 -8.58975 -22.3334 20.2810651593 1.9207600328 6
75 4 -17.1795 -6.8718 -24.0513 20.2802166681 1.9207153111 6
77 2 -13.7436 -6.8718 -24.0513 20.2806593709 1.9207376718 6
64 3 -12.0257 -8.58975 -22.3334 20.2811758382 1.9207600328 6
79 1 -10.3077 -6.8718 -24.0513 20.2808807288 1.9207376719 6
66 4 -8.58975 -8.58975 -22.3334 20.2811758382 1.9207488525 6
81 3 -6.8718 -6.8718 -24.0513 20.2806593709 1.9207264913 6
68 3 -5.15385 -8.58975 -22.3334 20.2811389474 1.9207488525 6
83 2 -3.4359 -6.8718 -24.0513 20.2806593709 1.9207264913 6
70 3 -1.71795 -8.58975 -22.3334 20.2811389474 1.9207488525 6
72 1 -22.3334 -5.15385 -22.3334 20.281102048 1.9207600328 6
85 4 -24.0513 -3.4359 -24.0513 20.2802166681 1.9207153111 6
74 2 -18.8974 -5.15385 -22.3334 20.281102048 1.9207600328 6
87 1 -20.6154 -3.4359 -24.0513 20.2811020909 1.9207488528 6
76 1 -15.4616 -5.15385 -22.3334 20.2810282684 1.9207600328 6
89 1 -17.1795 -3.4359 -24.0513 20.2802166681 1.9207153111 6
91 1 -13.7436 -3.4359 -24.0513 20.2806593709 1.9207376718 6
78 2 -12.0257 -5.15385 -22.3334 20.2811389474 1.9207600328 6
93 3 -10.3077 -3.4359 -24.0513 20.2808807288 1.9207376719 6
80 1 -8.58975 -5.15385 -22.3334 20.2811389474 1.9207488525 6
95 1 -6.8718 -3.4359 -24.0513 20.2806593709 1.9207264913 6
82 1 -5.15385 -5.15385 -22.3334 20.2811020565 1.9207488525 6
97 4 -3.4359 -3.4359 -24.0513 20.2806593709 1.9207264913 6
84 2 -1.71795 -5.15385 -22.3334 20.2811020565 1.9207488525 6
86 4 -22.3334 -1.71795 -22.3334 20.281102048 1.9207600328 6
88 2 -18.8974 -1.71795 -22.3334 20.281102048 1.9207600328 6
90 1 -15.4616 -1.71795 -22.3334 20.2810282684 1.9207600328 6
92 4 -12.0257 -1.71795 -22.3334 20.2811389474 1.9207600328 6
94 1 -8.58975 -1.71795 -22.3334 20.2811389474 1.9207488525 6
96 1 -5.15385 -1.71795 -22.3334 20.2811020565 1.9207488525 6
98 1 -1.71795 -1.71795 -22.3334 20.2811020565 1.9207488525 6
99 1 -24.0513 -24.0513 -20.6154 20.2806593967 1.9207376727 6
100 3 -22.3334 -22.3334 -18.8974 20.2811020394 1.9207600332 6
101 1 -20.6154 -24.0513 -20.6154 20.2815448023 1.9207600332 6
102 2 -18.8974 -22.3334 -18.8974 20.2811020394 1.9207600332 6
103 4 -17.1795 -24.0513 -20.6154 20.2806593967 1.9207376727 6
104 4 -15.4616 -22.3334 -18.8974 20.2810282599 1.9207600332 6
105 4 -13.7436 -24.0513 -20.6154 20.2811020909 1.9207600332 6
106 1 -12.0257 -22.3334 -18.8974 20.2811389388 1.9207600332 6
107 2 -10.3077 -24.0513 -20.6154 20.2813234445 1.9207600332 6
108 4 -8.58975 -22.3334 -18.8974 20.2811389388 1.9207600328 6
109 1 -6.8718 -24.0513 -20.6154 20.2811020909 1.9207488528 6
110 3 -5.15385 -22.3334 -18.8974 20.281102048 1.9207600328 6
111 4 -3.4359 -24.0513 -20.6154 20.2811020909 1.9207488528 6
112 2 -1.71795 -22.3334 -18.8974 20.281102048 1.9207600328 6
113 2 -24.0513 -20.6154 -20.6154 20.2815448023 1.9207600332 6
114 4 -22.3334 -18.8974 -18.8974 20.2811020394 1.9207600332 6
115 3 -20.6154 -20.6154 -20.6154 20.2824301736 1.9207600332 6
116 2 -18.8974 -18.8974 -18.8974 20.2811020394 1.9207600332 6
117 2 -17.1795 -20.6154 -20.6154 20.2815448023 1.9207600332 6
118 2 -15.4616 -18.8974 -18.8974 20.2810282599 1.9207600332 6
119 3 -13.7436 -20.6154 -20.6154 20.2819874794 1.9207600332 6
120 3 -12.0257 -18.8974 -18.8974 20.2811389388 1.9207600332 6
121 4 -10.3077 -20.6154 -20.6154 20.2822088244 1.9207600332 6
122 4 -8.58975 -18.8974 -18.8974 20.2811389388 1.9207600328 6
123 1 -6.8718 -20.6154 -20.6154 20.2819874794 1.9207600328 6
124 4 -5.15385 -18.8974 -18.8974 20.281102048 1.9207600328 6
125 1 -3.4359 -20.6154 -20.6154 20.2819874794 1.9207600328 6
126 3 -1.71795 -18.8974 -18.8974 20.281102048 1.9207600328 6
127 4 -24.0513 -17.1795 -20.6154 20.2806593967 1.9207376727 6
128 3 -22.3334 -15.4616 -18.8974 20.2810282599 1.9207600332 6
129 4 -20.6154 -17.1795 -20.6154 20.2815448023 1.9207600332 6
130 4 -18.8974 -15.4616 -18.8974 20.2810282599 1.9207600332 6
131 3 -17.1795 -17.1795 -20.6154 20.2806593967 1.9207376727 6
132 2 -15.4616 -15.4616 -18.8974 20.2809544803 1.9207600332 6
133 4 -13.7436 -17.1795 -20.6154 20.2811020909 1.9207600332 6
134 3 -12.0257 -15.4616 -18.8974 20.2810651593 1.9207600332 6
135 3 -10.3077 -17.1795 -20.6154 20.2813234445 1.9207600332 6
136 4 -8.58975 -15.4616 -18.8974 20.2810651593 1.9207600328 6
137 3 -6.8718 -17.1795 -20.6154 20.2811020909 1.9207488528 6
138 2 -5.15385 -15.4616 -18.8974 20.2810282684 1.9207600328 6
139 1 -3.4359 -17.1795 -20.6154 20.2811020909 1.9207488528 6
140 4 -1.71795 -15.4616 -18.8974 20.2810282684 1.9207600328 6
141 2 -24.0513 -13.7436 -20.6154 20.2811020909 1.9207600332 6
143 3 -20.6154 -13.7436 -20.6154 20.2819874794 1.9207600332 6
145 4 -17.1795 -13.7436 -20.6154 20.2811020909 1.9207600332 6
147 3 -13.7436 -13.7436 -20.6154 20.2815447766 1.9207600332 6
149 2 -10.3077 -13.7436 -20.6154 20.2817661258 1.9207600332 6
151 3 -6.8718 -13.7436 -20.6154 20.2815447766 1.9207600328 6
153 2 -3.4359 -13.7436 -20.6154 20.2815447766 1.9207600328 6
142 3 -22.3334 -12.0257 -18.8974 20.2811389388 1.9207600332 6
155 3 -24.0513 -10.3077 -20.6154 20.2813234445 1.9207600332 6
144 3 -18.8974 -12.0257 -18.8974 20.2811389388 1.9207600332 6
157 4 -20.6154 -10.3077 -20.6154 20.2822088244 1.9207600332 6
146 3 -15.4616 -12.0257 -18.8974 20.2810651593 1.9207600332 6
159 1 -17.1795 -10.3077 -20.6154 20.2813234445 1.9207600332 6
161 2 -13.7436 -10.3077 -20.6154 20.2817661258 1.9207600332 6
148 2 -12.0257 -12.0257 -18.8974 20.2811758382 1.9207600332 6
163 2 -10.3077 -10.3077 -20.6154 20.2819874729 1.9207600332 6
150 1 -8.58975 -12.0257 -18.8974 20.2811758382 1.9207600328 6
165 4 -6.8718 -10.3077 -20.6154 20.2817661258 1.9207600328 6
152 1 -5.15385 -12.0257 -18.8974 20.2811389474 1.9207600328 6
167 4 -3.4359 -10.3077 -20.6154 20.2817661258 1.9207600328 6
154 2 -1.71795 -12.0257 -18.8974 20.2811389474 1.9207600328 6
156 3 -22.3334 -8.58975 -18.8974 20.2811389388 1.9207600328 6
169 4 -24.0513 -6.8718 -20.6154 20.2811020909 1.9207488528 6
158 3 -18.8974 -8.58975 -18.8974 20.2811389388 1.9207600328 6
171 4 -20.6154 -6.8718 -20.6154 20.2819874794 1.9207600328 6
160 1 -15.4616 -8.58975 -18.8974 20.2810651593 1.9207600328 6
173 1 -17.1795 -6.8718 -20.6154 20.2811020909 1.9207488528 6
175 2 -13.7436 -6.8718 -20.6154 20.2815447766 1.9207600328 6
162 4 -12.0257 -8.58975 -18.8974 20.2811758382 1.9207600328 6
177 3 -10.3077 -6.8718 -20.6154 20.2817661258 1.9207600328 6
164 4 -8.58975 -8.58975 -18.8974 20.2811758382 1.9207488525 6
179 2 -6.8718 -6.8718 -20.6154 20.2815447766 1.9207488525 6
166 2 -5.15385 -8.58975 -18.8974 20.2811389474 1.9207488525 6
181 4 -3.4359 -6.8718 -20.6154 20.2815447766 1.9207488525 6
168 1 -1.71795 -8.58975 -18.8974 20.2811389474 1.9207488525 6
170 4 -22.3334 -5.15385 -18.8974 20.281102048 1.9207600328 6
183 4 -24.0513 -3.4359 -20.6154 20.2811020909 1.9207488528 6
172 3 -18.8974 -5.15385 -18.8974 20.281102048 1.9207600328 6
185 2 -20.6154 -3.4359 -20.6154 20.2819874794 1.9207600328 6
174 3 -15.4616 -5.15385 -18.8974 20.2810282684 1.9207600328 6
187 4 -17.1795 -3.4359 -20.6154 20.2811020909 1.9207488528 6
189 2 -13.7436 -3.4359 -20.6154 20.2815447766 1.9207600328 6
176 2 -12.0257 -5.15385 -18.8974 20.2811389474 1.9207600328 6
191 1 -10.3077 -3.4359 -20.6154 20.2817661258 1.9207600328 6
178 3 -8.58975 -5.15385 -18.8974 20.2811389474 1.9207488525 6
193 3 -6.8718 -3.4359 -20.6154 20.2815447766 1.9207488525 6
180 2 -5.15385 -5.15385 -18.8974 20.2811020565 1.9207488525 6
195 2 -3.4359 -3.4359 -20.6154 20.2815447766 1.9207488525 6
182 3 -1.71795 -5.15385 -18.8974 20.2811020565 1.9207488525 6
184 3 -22.3334 -1.71795 -18.8974 20.281102048 1.9207600328 6
186 2 -18.8974 -1.71795 -18.8974 20.281102048 1.9207600328 6
188 2 -15.4616 -1.71795 -18.8974 20.2810282684 1.9207600328 6
190 3 -12.0257 -1.71795 -18.8974 20.2811389474 1.9207600328 6
192 2 -8.58975 -1.71795 -18.8974 20.2811389474 1.9207488525 6
194 3 -5.15385 -1.71795 -18.8974 20.2811020565 1.9207488525 6
196 4 -1.71795 -1.71795 -18.8974 20.2811020565 1.9207488525 6
197 2 -24.0513 -24.0513 -17.1795 20.2797739566 1.9206929511 6
198 3 -22.3334 -22.3334 -15.4616 20.2810282599 1.9207600332 6
199 1 -20.6154 -24.0513 -17.1795 20.2806593967 1.9207376727 6
200 2 -18.8974 -22.3334 -15.4616 20.2810282599 1.9207600332 6
201 1 -17.1795 -24.0513 -17.1795 20.2797739566 1.9206929511 6
202 2 -15.4616 -22.3334 -15.4616 20.2809544803 1.9207600332 6
203 3 -13.7436 -24.0513 -17.1795 20.2802166681 1.9207153121 6
204 2 -12.0257 -22.3334 -15.4616 20.2810651593 1.9207600332 6
205 2 -10.3077 -24.0513 -17.1795 20.2804380302 1.9207264918 6
206 1 -8.58975 -22.3334 -15.4616 20.2810651593 1.9207600328 6
207 4 -6.8718 -24.0513 -17.1795 20.2802166681 1.9207153111 6
208 4 -5.15385 -22.3334 -15.4616 20.2810282684 1.9207600328 6
209 2 -3.4359 -24.0513 -17.1795 20.2802166681 1.9207153111 6
210 3 -1.71795 -22.3334 -15.4616 20.2810282684 1.9207600328 6
211 2 -24.0513 -20.6154 -17.1795 20.2806593967 1.9207376727 6
212 1 -22.3334 -18.8974 -15.4616 20.2810282599 1.9207600332 6
213 2 -20.6154 -20.6154 -17.1795 20.2815448023 1.9207600332 6
214 3 -18.8974 -18.8974 -15.4616 20.2810282599 1.9207600332 6
215 2 -17.1795 -20.6154 -17.1795 20.2806593967 1.9207376727 6
216 4 -15.4616 -18.8974 -15.4616 20.2809544803 1.9207600332 6
217 2 -13.7436 -20.6154 -17.1795 20.2811020909 1.9207600332 6
218 3 -12.0257 -18.8974 -15.4616 20.2810651593 1.9207600332 6
219 2 -10.3077 -20.6154 -17.1795 20.2813234445 1.9207600332 6
220 3 -8.58975 -18.8974 -15.4616 20.2810651593 1.9207600328 6
221 4 -6.8718 -20.6154 -17.1795 20.2811020909 1.9207488528 6
222 4 -5.15385 -18.8974 -15.4616 20.2810282684 1.9207600328 6
223 2 -3.4359 -20.6154 -17.1795 20.2811020909 1.9207488528 6
224 2 -1.71795 -18.8974 -15.4616 20.2810282684 1.9207600328 6
225 2 -24.0513 -17.1795 -17.1795 20.2797739566 1.9206929511 6
226 1 -22.3334 -15.4616 -15.4616 20.2809544803 1.9207600332 6
227 4 -20.6154 -17.1795 -17.1795 20.2806593967 1.9207376727 6
228 4 -18.8974 -15.4616 -15.4616 20.2809544803 1.9207600332 6
229 3 -17.1795 -17.1795 -17.1795 20.2797739566 1.9206929511 6
230 1 -15.4616 -15.4616 -15.4616 20.2808807008 1.9207376721 6
231 1 -13.7436 -17.1795 -17.1795 20.2802166681 1.9207153121 6
232 1 -12.0257 -15.4616 -15.4616 20.2809913798 1.9207488523 6
233 1 -10.3077 -17.1795 -17.1795 20.2804380302 1.9207264918 6
234 3 -8.58975 -15.4616 -15.4616 20.2809913798 1.9207488523 6
235 1 -6.8718 -17.1795 -17.1795 20.2802166681 1.9207153111 6
236 3 -5.15385 -15.4616 -15.4616 20.2809544889 1.9207376718 6
237 3 -3.4359 -17.1795 -17.1795 20.2802166681 1.9207153111 6
238 3 -1.71795 -15.4616 -15.4616 20.2809544889 1.9207376718 6
239 4 -24.0513 -13.7436 -17.1795 20.2802166681 1.9207153121 6
241 3 -20.6154 -13.7436 -17.1795 20.2811020909 1.9207600332 6
243 3 -17.1795 -13.7436 -17.1795 20.2802166681 1.9207153121 6
245 3 -13.7436 -13.7436 -17.1795 20.2806593709 1.9207376721 6
247 2 -10.3077 -13.7436 -17.1795 20.2808807288 1.9207488523 6
249 3 -6.8718 -13.7436 -17.1795 20.2806593709 1.9207376718 6
251 3 -3.4359 -13.7436 -17.1795 20.2806593709 1.9207376718 6
240 4 -22.3334 -12.0257 -15.4616 20.2810651593 1.9207600332 6
253 2 -24.0513 -10.3077 -17.1795 20.2804380302 1.9207264918 6
242 4 -18.8974 -12.0257 -15.4616 20.2810651593 1.9207600332 6
255 2 -20.6154 -10.3077 -17.1795 20.2813234445 1.9207600332 6
244 3 -15.4616 -12.0257 -15.4616 20.2809913798 1.9207488523 6
257 1 -17.1795 -10.3077 -17.1795 20.2804380302 1.9207264918 6
259 2 -13.7436 -10.3077 -17.1795 20.2808807288 1.9207488523 6
246 2 -12.0257 -12.0257 -15.4616 20.2811020587 1.9207488523 6
261 2 -10.3077 -10.3077 -17.1795 20.2811020845 1.9207488523 6
248 2 -8.58975 -12.0257 -15.4616 20.2811020587 1.9207488523 6
263 4 -6.8718 -10.3077 -17.1795 20.2808807288 1.9207376719 6
250 1 -5.15385 -12.0257 -15.4616 20.2810651679 1.920748852 6
265 4 -3.4359 -10.3077 -17.1795 20.2808807288 1.9207376719 6
252 4 -1.71795 -12.0257 -15.4616 20.2810651679 1.920748852 6
254 1 -22.3334 -8.58975 -15.4616 20.2810651593 1.9207600328 6
267 1 -24.0513 -6.8718 -17.1795 20.2802166681 1.9207153111 6
256 3 -18.8974 -8.58975 -15.4616 20.2810651593 1.9207600328 6
269 1 -20.6154 -6.8718 -17.1795 20.2811020909 1.9207488528 6
258 2 -15.4616 -8.58975 -15.4616 20.2809913798 1.9207488523 6
271 2 -17.1795 -6.8718 -17.1795 20.2802166681 1.9207153111 6
273 1 -13.7436 -6.8718 -17.1795 20.2806593709 1.9207376718 6
260 4 -12.0257 -8.58975 -15.4616 20.2811020587 1.9207488523 6
275 2 -10.3077 -6.8718 -17.1795 20.2808807288 1.9207376719 6
262 2 -8.58975 -8.58975 -15.4616 20.2811020587 1.920748852 6
277 3 -6.8718 -6.8718 -17.1795 20.2806593709 1.9207264913 6
264 3 -5.15385 -8.58975 -15.4616 20.2810651679 1.920748852 6
279 2 -3.4359 -6.8718 -17.1795 20.2806593709 1.9207264913 6
266 4 -1.71795 -8.58975 -15.4616 20.2810651679 1.920748852 6
268 3 -22.3334 -5.15385 -15.4616 20.2810282684 1.9207600328 6
281 3 -24.0513 -3.4359 -17.1795 20.2802166681 1.9207153111 6
270 3 -18.8974 -5.15385 -15.4616 20.2810282684 1.9207600328 6
283 4 -20.6154 -3.4359 -17.1795 20.2811020909 1.9207488528 6
272 4 -15.4616 -5.15385 -15.4616 20.2809544889 1.9207376718 6
285 3 -17.1795 -3.4359 -17.1795 20.2802166681 1.9207153111 6
287 4 -13.7436 -3.4359 -17.1795 20.2806593709 1.9207376718 6
274 4 -12.0257 -5.15385 -15.4616 20.2810651679 1.920748852 6
289 1 -10.3077 -3.4359 -17.1795 20.2808807288 1.9207376719 6
276 3 -8.58975 -5.15385 -15.4616 20.2810651679 1.920748852 6
291 1 -6.8718 -3.4359 -17.1795 20.2806593709 1.9207264913 6
278 1 -5.15385 -5.15385 -15.4616 20.281028277 1.9207376714 6
293 2 -3.4359 -3.4359 -17.1795 20.2806593709 1.9207264913 6
280 4 -1.71795 -5.15385 -15.4616 20.281028277 1.9207376714 6
282 3 -22.3334 -1.71795 -15.4616 20.2810282684 1.9207600328 6
284 2 -18.8974 -1.71795 -15.4616 20.2810282684 1.9207600328 6
286 1 -15.4616 -1.71795 -15.4616 20.2809544889 1.9207376718 6
288 2 -12.0257 -1.71795 -15.4616 20.2810651679 1.920748852 6
290 3 -8.58975 -1.71795 -15.4616 20.2810651679 1.920748852 6
292 2 -5.15385 -1.71795 -15.4616 20.281028277 1.9207376714 6
294 1 -1.71795 -1.71795 -15.4616 20.281028277 1.9207376714 6
295 4 -24.0513 -24.0513 -13.7436 20.2802166681 1.9207153121 6
297 3 -20.6154 -24.0513 -13.7436 20.2811020909 1.9207600332 6
299 1 -17.1795 -24.0513 -13.7436 20.2802166681 1.9207153121 6
301 3 -13.7436 -24.0513 -13.7436 20.2806593709 1.9207376721 6
303 4 -10.3077 -24.0513 -13.7436 20.2808807288 1.9207488523 6
305 3 -6.8718 -24.0513 -13.7436 20.2806593709 1.9207376718 6
307 4 -3.4359 -24.0513 -13.7436 20.2806593709 1.9207376718 6
309 1 -24.0513 -20.6154 -13.7436 20.2811020909 1.9207600332 6
311 4 -20.6154 -20.6154 -13.7436 20.2819874794 1.9207600332 6
313 1 -17.1795 -20.6154 -13.7436 20.2811020909 1.9207600332 6
315 3 -13.7436 -20.6154 -13.7436 20.2815447766 1.9207600332 6
317 1 -10.3077 -20.6154 -13.7436 20.2817661258 1.9207600332 6
319 1 -6.8718 -20.6154 -13.7436 20.2815447766 1.9207600328 6
321 3 -3.4359 -20.6154 -13.7436 20.2815447766 1.9207600328 6
323 2 -24.0513 -17.1795 -13.7436 20.2802166681 1.9207153121 6
325 2 -20.6154 -17.1795 -13.7436 20.2811020909 1.9207600332 6
327 3 -17.1795 -17.1795 -13.7436 20.2802166681 1.9207153121 6
329 4 -13.7436 -17.1795 -13.7436 20.2806593709 1.9207376721 6
331 2 -10.3077 -17.1795 -13.7436 20.2808807288 1.9207488523 6
333 2 -6.8718 -17.1795 -13.7436 20.2806593709 1.9207376718 6
335 1 -3.4359 -17.1795 -13.7436 20.2806593709 1.9207376718 6
337 3 -24.0513 -13.7436 -13.7436 20.2806593709 1.9207376721 6
339 2 -20.6154 -13.7436 -13.7436 20.2815447766 1.9207600332 6
341 2 -17.1795 -13.7436 -13.7436 20.2806593709 1.9207376721 6
343 1 -13.7436 -13.7436 -13.7436 20.2811020651 1.9207376721 6
345 3 -10.3077 -13.7436 -13.7436 20.2813234187 1.9207488523 6
347 2 -6.8718 -13.7436 -13.7436 20.2811020651 1.9207376718 6
349 1 -3.4359 -13.7436 -13.7436 20.2811020651 1.9207376718 6
351 1 -24.0513 -10.3077 -13.7436 20.2808807288 1.9207488523 6
353 1 -20.6154 -10.3077 -13.7436 20.2817661258 1.9207600332 6
355 4 -17.1795 -10.3077 -13.7436 20.2808807288 1.9207488523 6
357 3 -13.7436 -10.3077 -13.7436 20.2813234187 1.9207488523 6
359 1 -10.3077 -10.3077 -13.7436 20.2815447701 1.9207488523 6
361 2 -6.8718 -10.3077 -13.7436 20.2813234187 1.920748852 6
363 2 -3.4359 -10.3077 -13.7436 20.2813234187 1.920748852 6
365 3 -24.0513 -6.8718 -13.7436 20.2806593709 1.9207376718 6
367 3 -20.6154 -6.8718 -13.7436 20.2815447766 1.9207600328 6
369 1 -17.1795 -6.8718 -13.7436 20.2806593709 1.9207376718 6
371 2 -13.7436 -6.8718 -13.7436 20.2811020651 1.9207376718 6
373 3 -10.3077 -6.8718 -13.7436 20.2813234187 1.920748852 6
375 2 -6.8718 -6.8718 -13.7436 20.2811020651 1.9207376714 6
377 1 -3.4359 -6.8718 -13.7436 20.2811020651 1.9207376714 6
379 1 -24.0513 -3.4359 -13.7436 20.2806593709 1.9207376718 6
381 3 -20.6154 -3.4359 -13.7436 20.2815447766 1.9207600328 6
383 1 -17.1795 -3.4359 -13.7436 20.2806593709 1.9207376718 6
385 4 -13.7436 -3.4359 -13.7436 20.2811020651 1.9207376718 6
387 2 -10.3077 -3.4359 -13.7436 20.2813234187 1.920748852 6
389 2 -6.8718 -3.4359 -13.7436 20.2811020651 1.9207376714 6
391 1 -3.4359 -3.4359 -13.7436 20.2811020651 1.9207376714 6
296 3 -22.3334 -22.3334 -12.0257 20.2811389388 1.9207600332 6
393 3 -24.0513 -24.0513 -10.3077 20.2804380302 1.9207264918 6
298 4 -18.8974 -22.3334 -12.0257 20.2811389388 1.9207600332 6
395 4 -20.6154 -24.0513 -10.3077 20.2813234445 1.9207600332 6
300 2 -15.4616 -22.3334 -12.0257 20.2810651593 1.9207600332 6
397 1 -17.1795 -24.0513 -10.3077 20.2804380302 1.9207264918 6
399 3 -13.7436 -24.0513 -10.3077 20.2808807288 1.9207488523 6
302 4 -12.0257 -22.3334 -12.0257 20.2811758382 1.9207600332 6
401 2 -10.3077 -24.0513 -10.3077 20.2811020845 1.9207488523 6
304 1 -8.58975 -22.3334 -12.0257 20.2811758382 1.9207600328 6
403 4 -6.8718 -24.0513 -10.3077 20.2808807288 1.9207376719 6
306 3 -5.15385 -22.3334 -12.0257 20.2811389474 1.9207600328 6
405 3 -3.4359 -24.0513 -10.3077 20.2808807288 1.9207376719 6
308 1 -1.71795 -22.3334 -12.0257 20.2811389474 1.9207600328 6
310 1 -22.3334 -18.8974 -12.0257 20.2811389388 1.9207600332 6
407 1 -24.0513 -20.6154 -10.3077 20.2813234445 1.9207600332 6
312 4 -18.8974 -18.8974 -12.0257 20.2811389388 1.9207600332 6
409 1 -20.6154 -20.6154 -10.3077 20.2822088244 1.9207600332 6
314 1 -15.4616 -18.8974 -12.0257 20.2810651593 1.9207600332 6
411 3 -17.1795 -20.6154 -10.3077 20.2813234445 1.9207600332 6
413 4 -13.7436 -20.6154 -10.3077 20.2817661258 1.9207600332 6
316 4 -12.0257 -18.8974 -12.0257 20.2811758382 1.9207600332 6
415 3 -10.3077 -20.6154 -10.3077 20.2819874729 1.9207600332 6
318 3 -8.58975 -18.8974 -12.0257 20.2811758382 1.9207600328 6
417 1 -6.8718 -20.6154 -10.3077 20.2817661258 1.9207600328 6
320 4 -5.15385 -18.8974 -12.0257 20.2811389474 1.9207600328 6
419 2 -3.4359 -20.6154 -10.3077 20.2817661258 1.9207600328 6
322 2 -1.71795 -18.8974 -12.0257 20.2811389474 1.9207600328 6
324 1 -22.3334 -15.4616 -12.0257 20.2810651593 1.9207600332 6
421 1 -24.0513 -17.1795 -10.3077 20.2804380302 1.9207264918 6
326 3 -18.8974 -15.4616 -12.0257 20.2810651593 1.9207600332 6
423 3 -20.6154 -17.1795 -10.3077 20.2813234445 1.9207600332 6
328 4 -15.4616 -15.4616 -12.0257 20.2809913798 1.9207488523 6
425 2 -17.1795 -17.1795 -10.3077 20.2804380302 1.9207264918 6
427 1 -13.7436 -17.1795 -10.3077 20.2808807288 1.9207488523 6
330 1 -12.0257 -15.4616 -12.0257 20.2811020587 1.9207488523 6
429 3 -10.3077 -17.1795 -10.3077 20.2811020845 1.9207488523 6
332 2 -8.58975 -15.4616 -12.0257 20.2811020587 1.9207488523 6
431 1 -6.8718 -17.1795 -10.3077 20.2808807288 1.9207376719 6
334 4 -5.15385 -15.4616 -12.0257 20.2810651679 1.920748852 6
433 3 -3.4359 -17.1795 -10.3077 20.2808807288 1.9207376719 6
336 3 -1.71795 -15.4616 -12.0257 20.2810651679 1.920748852 6
435 4 -24.0513 -13.7436 -10.3077 20.2808807288 1.9207488523 6
437 4 -20.6154 -13.7436 -10.3077 20.2817661258 1.9207600332 6
439 3 -17.1795 -13.7436 -10.3077 20.2808807288 1.9207488523 6
441 3 -13.7436 -13.7436 -10.3077 20.2813234187 1.9207488523 6
443 2 -10.3077 -13.7436 -10.3077 20.2815447701 1.9207488523 6
445 2 -6.8718 -13.7436 -10.3077 20.2813234187 1.920748852 6
447 3 -3.4359 -13.7436 -10.3077 20.2813234187 1.920748852 6
338 1 -22.3334 -12.0257 -12.0257 20.2811758382 1.9207600332 6
449 1 -24.0513 -10.3077 -10.3077 20.2811020845 1.9207488523 6
340 4 -18.8974 -12.0257 -12.0257 20.2811758382 1.9207600332 6
451 3 -20.6154 -10.3077 -10.3077 20.2819874729 1.9207600332 6
342 4 -15.4616 -12.0257 -12.0257 20.2811020587 1.9207488523 6
453 1 -17.1795 -10.3077 -10.3077 20.2811020845 1.9207488523 6
455 3 -13.7436 -10.3077 -10.3077 20.2815447701 1.9207488523 6
344 1 -12.0257 -12.0257 -12.0257 20.2812127376 1.9207488523 6
457 1 -10.3077 -10.3077 -10.3077 20.2817661194 1.9207488523 6
346 2 -8.58975 -12.0257 -12.0257 20.2812127376 1.9207488523 6
459 3 -6.8718 -10.3077 -10.3077 20.2815447701 1.920748852 6
348 4 -5.15385 -12.0257 -12.0257 20.2811758468 1.920748852 6
461 3 -3.4359 -10.3077 -10.3077 20.2815447701 1.920748852 6
350 3 -1.71795 -12.0257 -12.0257 20.2811758468 1.920748852 6
352 3 -22.3334 -8.58975 -12.0257 20.2811758382 1.9207600328 6
463 4 -24.0513 -6.8718 -10.3077 20.2808807288 1.9207376719 6
354 1 -18.8974 -8.58975 -12.0257 20.2811758382 1.9207600328 6
465 2 -20.6154 -6.8718 -10.3077 20.2817661258 1.9207600328 6
356 1 -15.4616 -8.58975 -12.0257 20.2811020587 1.9207488523 6
467 3 -17.1795 -6.8718 -10.3077 20.2808807288 1.9207376719 6
469 1 -13.7436 -6.8718 -10.3077 20.2813234187 1.920748852 6
358 3 -12.0257 -8.58975 -12.0257 20.2812127376 1.9207488523 6
471 2 -10.3077 -6.8718 -10.3077 20.2815447701 1.920748852 6
360 2 -8.58975 -8.58975 -12.0257 20.2812127376 1.920748852 6
473 3 -6.8718 -6.8718 -10.3077 20.2813234187 1.9207376716 6
362 2 -5.15385 -8.58975 -12.0257 20.2811758468 1.920748852 6
475 3 -3.4359 -6.8718 -10.3077 20.2813234187 1.9207376716 6
364 4 -1.71795 -8.58975 -12.0257 20.2811758468 1.920748852 6
366 3 -22.3334 -5.15385 -12.0257 20.2811389474 1.9207600328 6
477 3 -24.0513 -3.4359 -10.3077 20.2808807288 1.9207376719 6
368 3 -18.8974 -5.15385 -12.0257 20.2811389474 1.9207600328 6
479 3 -20.6154 -3.4359 -10.3077 20.2817661258 1.9207600328 6
370 3 -15.4616 -5.15385 -12.0257 20.2810651679 1.920748852 6
481 3 -17.1795 -3.4359 -10.3077 20.2808807288 1.9207376719 6
483 1 -13.7436 -3.4359 -10.3077 20.2813234187 1.920748852 6
372 4 -12.0257 -5.15385 -12.0257 20.2811758468 1.920748852 6
485 3 -10.3077 -3.4359 -10.3077 20.2815447701 1.920748852 6
374 3 -8.58975 -5.15385 -12.0257 20.2811758468 1.920748852 6
487 1 -6.8718 -3.4359 -10.3077 20.2813234187 1.9207376716 6
376 4 -5.15385 -5.15385 -12.0257 20.281138956 1.9207376716 6
489 2 -3.4359 -3.4359 -10.3077 20.2813234187 1.9207376716 6
378 3 -1.71795 -5.15385 -12.0257 20.281138956 1.9207376716 6
380 4 -22.3334 -1.71795 -12.0257 20.2811389474 1.9207600328 6
382 1 -18.8974 -1.71795 -12.0257 20.2811389474 1.9207600328 6
384 4 -15.4616 -1.71795 -12.0257 20.2810651679 1.920748852 6
386 3 -12.0257 -1.71795 -12.0257 20.2811758468 1.920748852 6
388 1 -8.58975 -1.71795 -12.0257 20.2811758468 1.920748852 6
390 2 -5.15385 -1.71795 -12.0257 20.281138956 1.9207376716 6
392 4 -1.71795 -1.71795 -12.0257 20.281138956 1.9207376716 6
394 1 -22.3334 -22.3334 -8.58975 20.2811389388 1.9207600328 6
491 4 -24.0513 -24.0513 -6.8718 20.2802166681 1.9207153111 6
396 1 -18.8974 -22.3334 -8.58975 20.2811389388 1.9207600328 6
493 2 -20.6154 -24.0513 -6.8718 20.2811020909 1.9207488528 6
398 4 -15.4616 -22.3334 -8.58975 20.2810651593 1.9207600328 6
495 4 -17.1795 -24.0513 -6.8718 20.2802166681 1.9207153111 6
497 4 -13.7436 -24.0513 -6.8718 20.2806593709 1.9207376718 6
400 2 -12.0257 -22.3334 -8.58975 20.2811758382 1.9207600328 6
499 2 -10.3077 -24.0513 -6.8718 20.2808807288 1.9207376719 6
402 2 -8.58975 -22.3334 -8.58975 20.2811758382 1.9207488525 6
501 3 -6.8718 -24.0513 -6.8718 20.2806593709 1.9207264913 6
404 1 -5.15385 -22.3334 -8.58975 20.2811389474 1.9207488525 6
503 3 -3.4359 -24.0513 -6.8718 20.2806593709 1.9207264913 6
406 1 -1.71795 -22.3334 -8.58975 20.2811389474 1.9207488525 6
408 3 -22.3334 -18.8974 -8.58975 20.2811389388 1.9207600328 6
505 3 -24.0513 -20.6154 -6.8718 20.2811020909 1.9207488528 6
410 4 -18.8974 -18.8974 -8.58975 20.2811389388 1.9207600328 6
507 2 -20.6154 -20.6154 -6.8718 20.2819874794 1.9207600328 6
412 4 -15.4616 -18.8974 -8.58975 20.2810651593 1.9207600328 6
509 2 -17.1795 -20.6154 -6.8718 20.2811020909 1.9207488528 6
511 3 -13.7436 -20.6154 -6.8718 20.2815447766 1.9207600328 6
414 3 -12.0257 -18.8974 -8.58975 20.2811758382 1.9207600328 6
513 3 -10.3077 -20.6154 -6.8718 20.2817661258 1.9207600328 6
416 3 -8.58975 -18.8974 -8.58975 20.2811758382 1.9207488525 6
515 1 -6.8718 -20.6154 -6.8718 20.2815447766 1.9207488525 6
418 2 -5.15385 -18.8974 -8.58975 20.2811389474 1.9207488525 6
517 4 -3.4359 -20.6154 -6.8718 20.2815447766 1.9207488525 6
420 1 -1.71795 -18.8974 -8.58975 20.2811389474 1.9207488525 6
422 2 -22.3334 -15.4616 -8.58975 20.2810651593 1.9207600328 6
519 2 -24.0513 -17.1795 -6.8718 20.2802166681 1.9207153111 6
424 4 -18.8974 -15.4616 -8.58975 20.2810651593 1.9207600328 6
521 2 -20.6154 -17.1795 -6.8718 20.2811020909 1.9207488528 6
426 4 -15.4616 -15.4616 -8.58975 20.2809913798 1.9207488523 6
523 3 -17.1795 -17.1795 -6.8718 20.2802166681 1.9207153111 6
525 3 -13.7436 -17.1795 -6.8718 20.2806593709 1.9207376718 6
428 4 -12.0257 -15.4616 -8.58975 20.2811020587 1.9207488523 6
527 1 -10.3077 -17.1795 -6.8718 20.2808807288 1.9207376719 6
430 4 -8.58975 -15.4616 -8.58975 20.2811020587 1.920748852 6
529 1 -6.8718 -17.1795 -6.8718 20.2806593709 1.9207264913 6
432 2 -5.15385 -15.4616 -8.58975 20.2810651679 1.920748852 6
531 4 -3.4359 -17.1795 -6.8718 20.2806593709 1.9207264913 6
434 4 -1.71795 -15.4616 -8.58975 20.2810651679 1.920748852 6
533 2 -24.0513 -13.7436 -6.8718 20.2806593709 1.9207376718 6
535 3 -20.6154 -13.7436 -6.8718 20.2815447766 1.9207600328 6
537 1 -17.1795 -13.7436 -6.8718 20.2806593709 1.9207376718 6