ITEM: TIMESTEP
0
ITEM: NUMBER OF ATOMS
14
ITEM: BOX BOUNDS pp pp pp
-24.0513 24.0513
-24.0513 24.0513
-24.0513 24.0513
ITEM: ATOMS id type x y z Cluster
518 2 -1.71795 -18.8974 -5.15385 1
629 3 -3.4359 -17.1795 -3.4359 1
532 3 -1.71795 -15.4616 -5.15385 1
616 3 -1.71795 -18.8974 -1.71795 1
630 2 -1.71795 -15.4616 -1.71795 1
3263 3 0.0 -17.1795 -6.8718 1
3250 3 1.71795 -18.8974 -5.15385 1
3347 3 0.0 -20.6154 -3.4359 1
3264 3 1.71795 -15.4616 -5.15385 1
3363 1 3.4359 -17.1795 -3.4359 1
3375 2 0.0 -13.7436 -3.4359 1
3348 1 1.71795 -18.8974 -1.71795 1
3362 2 1.71795 -15.4616 -1.71795 1
3459 3 0.0 -17.1795 0.0 1
