ITEM: TIMESTEP
0
ITEM: NUMBER OF ATOMS
14
ITEM: BOX BOUNDS pp pp pp
-24.0513 24.0513
-24.0513 24.0513
-24.0513 24.0513
ITEM: ATOMS id type x y z Cluster
836 2 -8.58975 -12.0257 5.15385 1
851 2 -6.8718 -10.3077 3.4359 1
838 2 -5.15385 -12.0257 5.15385 1
850 2 -8.58975 -8.58975 5.15385 1
852 2 -5.15385 -8.58975 5.15385 1
935 2 -6.8718 -13.7436 6.8718 1
947 1 -10.3077 -10.3077 6.8718 1
934 4 -8.58975 -12.0257 8.58975 1
936 2 -5.15385 -12.0257 8.58975 1
951 1 -3.4359 -10.3077 6.8718 1
948 1 -8.58975 -8.58975 8.58975 1
963 4 -6.8718 -6.8718 6.8718 1
950 2 -5.15385 -8.58975 8.58975 1
1047 2 -6.8718 -10.3077 10.3077 1
