ITEM: TIMESTEP
0
ITEM: NUMBER OF ATOMS
14
ITEM: BOX BOUNDS pp pp pp
-24.0513 24.0513
-24.0513 24.0513
-24.0513 24.0513
ITEM: ATOMS id type x y z Cluster
2268 3 -1.71795 1.71795 8.58975 1
2282 4 -1.71795 5.15385 8.58975 1
2379 2 -3.4359 3.4359 10.3077 1
2366 2 -1.71795 1.71795 12.0257 1
2380 1 -1.71795 5.15385 12.0257 1
5000 1 1.71795 1.71795 8.58975 1
5013 3 0.0 3.4359 6.8718 1
5014 1 1.71795 5.15385 8.58975 1
5097 2 0.0 0.0 10.3077 1
5113 2 3.4359 3.4359 10.3077 1
5125 1 0.0 6.8718 10.3077 1
5098 1 1.71795 1.71795 12.0257 1
5112 3 1.71795 5.15385 12.0257 1
5209 2 0.0 3.4359 13.7436 1
