ITEM: TIMESTEP
0
ITEM: NUMBER OF ATOMS
33
ITEM: BOX BOUNDS pp pp pp
-24.0513 24.0513
-24.0513 24.0513
-24.0513 24.0513
ITEM: ATOMS id type x y z Cluster
784 4 -1.71795 -1.71795 1.71795 0
1974 4 -1.71795 1.71795 -1.71795 0
2070 4 -5.15385 1.71795 1.71795 0
2071 4 -3.4359 0.0 0.0 0
2085 4 -3.4359 3.4359 0.0 0
2086 3 -1.71795 5.15385 1.71795 0
2169 3 -3.4359 0.0 3.4359 0
2170 3 -1.71795 1.71795 5.15385 0
2183 4 -3.4359 3.4359 3.4359 0
2184 3 -1.71795 5.15385 5.15385 0
2268 3 -1.71795 1.71795 8.58975 2
2282 4 -1.71795 5.15385 8.58975 2
2379 2 -3.4359 3.4359 10.3077 2
2366 2 -1.71795 1.71795 12.0257 2
2380 1 -1.71795 5.15385 12.0257 2
4803 3 0.0 0.0 0.0 0
4804 4 1.71795 1.71795 1.71795 0
4817 1 0.0 3.4359 0.0 0
4818 1 1.71795 5.15385 1.71795 0
4901 2 0.0 0.0 3.4359 0
4902 3 1.71795 1.71795 5.15385 0
4916 2 1.71795 5.15385 5.15385 0
4917 2 3.4359 3.4359 3.4359 0
4929 1 0.0 6.8718 3.4359 0
5000 1 1.71795 1.71795 8.58975 2
5013 3 0.0 3.4359 6.8718 0
5014 1 1.71795 5.15385 8.58975 2
5097 2 0.0 0.0 10.3077 2
5113 2 3.4359 3.4359 10.3077 2
5125 1 0.0 6.8718 10.3077 2
5098 1 1.71795 1.71795 12.0257 2
5112 3 1.71795 5.15385 12.0257 2
5209 2 0.0 3.4359 13.7436 2
