ITEM: TIMESTEP
0
ITEM: NUMBER OF ATOMS
6
ITEM: BOX BOUNDS pp pp pp
-24.0513 24.0513
-24.0513 24.0513
-24.0513 24.0513
ITEM: ATOMS id type x y z Cluster
685 1 -3.4359 -3.4359 -3.4359 0
588 4 -1.71795 -1.71795 -5.15385 0
672 1 -1.71795 -5.15385 -1.71795 0
684 1 -5.15385 -1.71795 -1.71795 0
783 4 -3.4359 -3.4359 0.0 0
1973 4 -3.4359 0.0 -3.4359 0
