ITEM: TIMESTEP
0
ITEM: NUMBER OF ATOMS
24
ITEM: BOX BOUNDS pp pp pp
-24.0513 24.0513
-24.0513 24.0513
-24.0513 24.0513
ITEM: ATOMS id type x y z Cluster
742 3 -1.71795 -12.0257 1.71795 1
756 2 -1.71795 -8.58975 1.71795 1
826 3 -1.71795 -15.4616 5.15385 1
853 3 -3.4359 -10.3077 3.4359 1
840 1 -1.71795 -12.0257 5.15385 1
854 4 -1.71795 -8.58975 5.15385 1
924 1 -1.71795 -15.4616 8.58975 1
937 4 -3.4359 -13.7436 6.8718 1
938 3 -1.71795 -12.0257 8.58975 1
3474 1 1.71795 -12.0257 1.71795 1
3487 3 0.0 -10.3077 0.0 1
3488 4 1.71795 -8.58975 1.71795 1
3558 1 1.71795 -15.4616 5.15385 1
3571 3 0.0 -13.7436 3.4359 1
3572 4 1.71795 -12.0257 5.15385 1
3587 1 3.4359 -10.3077 3.4359 1
3586 2 1.71795 -8.58975 5.15385 1
3599 2 0.0 -6.8718 3.4359 1
3655 2 0.0 -17.1795 6.8718 1
3656 2 1.71795 -15.4616 8.58975 1
3671 1 3.4359 -13.7436 6.8718 1
3670 4 1.71795 -12.0257 8.58975 1
3683 4 0.0 -10.3077 6.8718 1
3767 1 0.0 -13.7436 10.3077 1
