ITEM: TIMESTEP
0
ITEM: NUMBER OF ATOMS
14
ITEM: BOX BOUNDS pp pp pp
-24.0513 24.0513
-24.0513 24.0513
-24.0513 24.0513
ITEM: ATOMS id type x y z Cluster
1120 3 -1.71795 -15.4616 15.4616 0
1231 1 -3.4359 -13.7436 17.1795 0
1134 1 -1.71795 -12.0257 15.4616 0
1218 1 -1.71795 -15.4616 18.8974 0
1232 4 -1.71795 -12.0257 18.8974 0
3865 4 0.0 -13.7436 13.7436 0
3852 4 1.71795 -15.4616 15.4616 0
3949 4 0.0 -17.1795 17.1795 0
3965 2 3.4359 -13.7436 17.1795 0
3866 4 1.71795 -12.0257 15.4616 0
3977 1 0.0 -10.3077 17.1795 0
3950 4 1.71795 -15.4616 18.8974 0
4061 2 0.0 -13.7436 20.6154 0
3964 3 1.71795 -12.0257 18.8974 0
