ITEM: TIMESTEP
0
ITEM: NUMBER OF ATOMS
33
ITEM: BOX BOUNDS pp pp pp
-24.0513 24.0513
-24.0513 24.0513
-24.0513 24.0513
ITEM: ATOMS id type x y z Cluster
784 4 -1.717950 -1.717950 1.717950 0
1974 4 -1.717950 1.717950 -1.717950 0
2070 4 -5.153850 1.717950 1.717950 0
2071 4 -3.435900 0.000000 0.000000 0
2085 4 -3.435900 3.435900 0.000000 0
2086 3 -1.717950 5.153850 1.717950 0
2169 3 -3.435900 0.000000 3.435900 0
2170 3 -1.717950 1.717950 5.153850 0
2183 4 -3.435900 3.435900 3.435900 0
2184 3 -1.717950 5.153850 5.153850 0
2268 3 -1.717950 1.717950 8.589750 2
2282 4 -1.717950 5.153850 8.589750 2
2379 2 -3.435900 3.435900 10.307700 2
2366 2 -1.717950 1.717950 12.025700 2
2380 1 -1.717950 5.153850 12.025700 2
4803 3 0.000000 0.000000 0.000000 0
4804 4 1.717950 1.717950 1.717950 0
4817 1 0.000000 3.435900 0.000000 0
4818 1 1.717950 5.153850 1.717950 0
4901 2 0.000000 0.000000 3.435900 0
4902 3 1.717950 1.717950 5.153850 0
4916 2 1.717950 5.153850 5.153850 0
4917 2 3.435900 3.435900 3.435900 0
4929 1 0.000000 6.871800 3.435900 0
5000 1 1.717950 1.717950 8.589750 2
5013 3 0.000000 3.435900 6.871800 0
5014 1 1.717950 5.153850 8.589750 2
5097 2 0.000000 0.000000 10.307700 2
5113 2 3.435900 3.435900 10.307700 2
5125 1 0.000000 6.871800 10.307700 2
5098 1 1.717950 1.717950 12.025700 2
5112 3 1.717950 5.153850 12.025700 2
5209 2 0.000000 3.435900 13.743600 2
