ITEM: TIMESTEP
0
ITEM: NUMBER OF ATOMS
10
ITEM: BOX BOUNDS pp pp pp
-24.0513 24.0513
-24.0513 24.0513
-24.0513 24.0513
ITEM: ATOMS id type x y z Cluster
574 1 -1.71795 -5.15385 -5.15385 1
3319 4 0.0 -3.4359 -6.8718 1
3403 1 0.0 -6.8718 -3.4359 1
3306 4 1.71795 -5.15385 -5.15385 1
3419 4 3.4359 -3.4359 -3.4359 1
3320 3 1.71795 -1.71795 -5.15385 1
3404 4 1.71795 -5.15385 -1.71795 1
3418 2 1.71795 -1.71795 -1.71795 1
3515 3 0.0 -3.4359 0.0 1
4705 3 0.0 0.0 -3.4359 1
