ITEM: TIMESTEP
0
ITEM: NUMBER OF ATOMS
50
ITEM: BOX BOUNDS pp pp pp
-24.0513 24.0513
-24.0513 24.0513
-24.0513 24.0513
ITEM: ATOMS id type x y z Cluster
4177 4 6.8718 13.7436 -24.0513 0
4179 2 10.3077 13.7436 -24.0513 0
4191 1 6.8718 17.1795 -24.0513 0
4193 4 10.3077 17.1795 -24.0513 0
5255 4 6.8718 13.7436 -34.359 0
5257 3 10.3077 13.7436 -34.359 0
5269 3 6.8718 17.1795 -34.359 0
5271 1 10.3077 17.1795 -34.359 0
5339 2 6.8718 10.3077 -30.9231 0
5341 3 10.3077 10.3077 -30.9231 0
5240 2 5.15385 12.0257 -32.641 0
5351 4 3.4359 13.7436 -30.9231 0
5242 1 8.58975 12.0257 -32.641 0
5244 1 12.0257 12.0257 -32.641 0
5357 2 13.7436 13.7436 -30.9231 0
5254 2 5.15385 15.4616 -32.641 0
5365 3 3.4359 17.1795 -30.9231 0
5256 1 8.58975 15.4616 -32.641 0
5258 1 12.0257 15.4616 -32.641 0
5371 1 13.7436 17.1795 -30.9231 0
5268 3 5.15385 18.8974 -32.641 0
5270 1 8.58975 18.8974 -32.641 0
5381 2 6.8718 20.6154 -30.9231 0
5383 1 10.3077 20.6154 -30.9231 0
5272 4 12.0257 18.8974 -32.641 0
5437 4 6.8718 10.3077 -27.4872 0
5439 4 10.3077 10.3077 -27.4872 0
5338 3 5.15385 12.0257 -29.2052 0
5449 2 3.4359 13.7436 -27.4872 0
5340 3 8.58975 12.0257 -29.2052 0
5342 1 12.0257 12.0257 -29.2052 0
5455 2 13.7436 13.7436 -27.4872 0
5352 1 5.15385 15.4616 -29.2052 0
5463 3 3.4359 17.1795 -27.4872 0
5356 4 12.0257 15.4616 -29.2052 0
5469 1 13.7436 17.1795 -27.4872 0
5366 1 5.15385 18.8974 -29.2052 0
5368 4 8.58975 18.8974 -29.2052 0
5479 4 6.8718 20.6154 -27.4872 0
5481 2 10.3077 20.6154 -27.4872 0
5370 1 12.0257 18.8974 -29.2052 0
5436 3 5.15385 12.0257 -25.7692 0
5438 1 8.58975 12.0257 -25.7692 0
5440 3 12.0257 12.0257 -25.7692 0
5450 1 5.15385 15.4616 -25.7692 0
5452 1 8.58975 15.4616 -25.7692 0
5454 2 12.0257 15.4616 -25.7692 0
5464 1 5.15385 18.8974 -25.7692 0
5466 3 8.58975 18.8974 -25.7692 0
5468 3 12.0257 18.8974 -25.7692 0
