ITEM: TIMESTEP
0
ITEM: NUMBER OF ATOMS
5
ITEM: BOX BOUNDS pp pp pp
-24.0513 24.0513
-24.0513 24.0513
-24.0513 24.0513
ITEM: ATOMS id type x y z Cluster
2224 4 -5.15385 15.4616 5.15385 1
2323 4 -3.4359 13.7436 6.8718 1
2322 2 -5.15385 15.4616 8.58975 1
2337 3 -3.4359 17.1795 6.8718 1
2324 2 -1.71795 15.4616 8.58975 1
