ITEM: TIMESTEP
0
ITEM: NUMBER OF ATOMS
21
ITEM: BOX BOUNDS pp pp pp
-24.0513 24.0513
-24.0513 24.0513
-24.0513 24.0513
ITEM: ATOMS id type x y z Cluster
2114 1 -1.71795 12.0257 1.71795 1
2128 1 -1.71795 15.4616 1.71795 1
2225 4 -3.4359 13.7436 3.4359 1
2212 4 -1.71795 12.0257 5.15385 1
2224 4 -5.15385 15.4616 5.15385 1
2239 2 -3.4359 17.1795 3.4359 1
2240 3 -1.71795 18.8974 5.15385 1
2323 4 -3.4359 13.7436 6.8718 1
2322 2 -5.15385 15.4616 8.58975 1
2337 3 -3.4359 17.1795 6.8718 1
2324 2 -1.71795 15.4616 8.58975 1
4846 3 1.71795 12.0257 1.71795 1
4859 4 0.0 13.7436 0.0 1
4860 4 1.71795 15.4616 1.71795 1
4943 1 0.0 10.3077 3.4359 1
4944 4 1.71795 12.0257 5.15385 1
4959 4 3.4359 13.7436 3.4359 1
4958 1 1.71795 15.4616 5.15385 1
4971 1 0.0 17.1795 3.4359 1
5055 1 0.0 13.7436 6.8718 1
5069 2 0.0 17.1795 6.8718 1
