ITEM: TIMESTEP
0
ITEM: NUMBER OF ATOMS
38
ITEM: BOX BOUNDS pp pp pp
-24.0513 24.0513
-24.0513 24.0513
-24.0513 24.0513
ITEM: ATOMS id type x y z Cluster
742 3 -1.717950 -12.025700 1.717950 0
756 2 -1.717950 -8.589750 1.717950 0
826 3 -1.717950 -15.461600 5.153850 0
836 2 -8.589750 -12.025700 5.153850 1
851 2 -6.871800 -10.307700 3.435900 1
838 2 -5.153850 -12.025700 5.153850 1
853 3 -3.435900 -10.307700 3.435900 0
840 1 -1.717950 -12.025700 5.153850 0
850 2 -8.589750 -8.589750 5.153850 1
852 2 -5.153850 -8.589750 5.153850 1
854 4 -1.717950 -8.589750 5.153850 0
924 1 -1.717950 -15.461600 8.589750 0
935 2 -6.871800 -13.743600 6.871800 1
937 4 -3.435900 -13.743600 6.871800 0
947 1 -10.307700 -10.307700 6.871800 1
934 4 -8.589750 -12.025700 8.589750 1
936 2 -5.153850 -12.025700 8.589750 1
951 1 -3.435900 -10.307700 6.871800 1
938 3 -1.717950 -12.025700 8.589750 0
948 1 -8.589750 -8.589750 8.589750 1
963 4 -6.871800 -6.871800 6.871800 1
950 2 -5.153850 -8.589750 8.589750 1
1047 2 -6.871800 -10.307700 10.307700 1
3474 1 1.717950 -12.025700 1.717950 0
3487 3 0.000000 -10.307700 0.000000 0
3488 4 1.717950 -8.589750 1.717950 0
3558 1 1.717950 -15.461600 5.153850 0
3571 3 0.000000 -13.743600 3.435900 0
3572 4 1.717950 -12.025700 5.153850 0
3587 1 3.435900 -10.307700 3.435900 0
3586 2 1.717950 -8.589750 5.153850 0
3599 2 0.000000 -6.871800 3.435900 0
3655 2 0.000000 -17.179500 6.871800 0
3656 2 1.717950 -15.461600 8.589750 0
3671 1 3.435900 -13.743600 6.871800 0
3670 4 1.717950 -12.025700 8.589750 0
3683 4 0.000000 -10.307700 6.871800 0
3767 1 0.000000 -13.743600 10.307700 0
