ITEM: TIMESTEP
0
ITEM: NUMBER OF ATOMS
199
ITEM: BOX BOUNDS pp pp pp
-24.0513 24.0513
-24.0513 24.0513
-24.0513 24.0513
ITEM: ATOMS id type x y z
518 2 -1.71795 -18.8974 -5.15385
629 3 -3.4359 -17.1795 -3.4359
532 3 -1.71795 -15.4616 -5.15385
685 1 -3.4359 -3.4359 -3.4359
574 1 -1.71795 -5.15385 -5.15385
588 4 -1.71795 -1.71795 -5.15385
616 3 -1.71795 -18.8974 -1.71795
630 2 -1.71795 -15.4616 -1.71795
672 1 -1.71795 -5.15385 -1.71795
684 1 -5.15385 -1.71795 -1.71795
742 3 -1.71795 -12.0257 1.71795
756 2 -1.71795 -8.58975 1.71795
783 4 -3.4359 -3.4359 0.0
784 4 -1.71795 -1.71795 1.71795
826 3 -1.71795 -15.4616 5.15385
836 2 -8.58975 -12.0257 5.15385
851 2 -6.8718 -10.3077 3.4359
838 2 -5.15385 -12.0257 5.15385
853 3 -3.4359 -10.3077 3.4359
840 1 -1.71795 -12.0257 5.15385
850 2 -8.58975 -8.58975 5.15385
852 2 -5.15385 -8.58975 5.15385
854 4 -1.71795 -8.58975 5.15385
924 1 -1.71795 -15.4616 8.58975
935 2 -6.8718 -13.7436 6.8718
937 4 -3.4359 -13.7436 6.8718
947 1 -10.3077 -10.3077 6.8718
934 4 -8.58975 -12.0257 8.58975
936 2 -5.15385 -12.0257 8.58975
951 1 -3.4359 -10.3077 6.8718
938 3 -1.71795 -12.0257 8.58975
948 1 -8.58975 -8.58975 8.58975
963 4 -6.8718 -6.8718 6.8718
950 2 -5.15385 -8.58975 8.58975
1047 2 -6.8718 -10.3077 10.3077
1120 3 -1.71795 -15.4616 15.4616
1231 1 -3.4359 -13.7436 17.1795
1134 1 -1.71795 -12.0257 15.4616
1218 1 -1.71795 -15.4616 18.8974
1232 4 -1.71795 -12.0257 18.8974
1973 4 -3.4359 0.0 -3.4359
1974 4 -1.71795 1.71795 -1.71795
2070 4 -5.15385 1.71795 1.71795
2071 4 -3.4359 0.0 0.0
2085 4 -3.4359 3.4359 0.0
2086 3 -1.71795 5.15385 1.71795
2114 1 -1.71795 12.0257 1.71795
2128 1 -1.71795 15.4616 1.71795
2169 3 -3.4359 0.0 3.4359
2170 3 -1.71795 1.71795 5.15385
2183 4 -3.4359 3.4359 3.4359
2184 3 -1.71795 5.15385 5.15385
2225 4 -3.4359 13.7436 3.4359
2212 4 -1.71795 12.0257 5.15385
2224 4 -5.15385 15.4616 5.15385
2239 2 -3.4359 17.1795 3.4359
2240 3 -1.71795 18.8974 5.15385
2268 3 -1.71795 1.71795 8.58975
2282 4 -1.71795 5.15385 8.58975
2323 4 -3.4359 13.7436 6.8718
2322 2 -5.15385 15.4616 8.58975
2337 3 -3.4359 17.1795 6.8718
2324 2 -1.71795 15.4616 8.58975
2379 2 -3.4359 3.4359 10.3077
2419 2 -6.8718 13.7436 10.3077
2421 1 -3.4359 13.7436 10.3077
2433 2 -6.8718 17.1795 10.3077
2435 1 -3.4359 17.1795 10.3077
2366 2 -1.71795 1.71795 12.0257
2380 1 -1.71795 5.15385 12.0257
2517 2 -6.8718 13.7436 13.7436
2406 1 -5.15385 12.0257 12.0257
2519 3 -3.4359 13.7436 13.7436
2418 3 -8.58975 15.4616 12.0257
2531 4 -6.8718 17.1795 13.7436
2533 2 -3.4359 17.1795 13.7436
2422 1 -1.71795 15.4616 12.0257
2434 4 -5.15385 18.8974 12.0257
2518 3 -5.15385 15.4616 15.4616
3263 3 0.0 -17.1795 -6.8718
3319 4 0.0 -3.4359 -6.8718
3250 3 1.71795 -18.8974 -5.15385
3347 3 0.0 -20.6154 -3.4359
3264 3 1.71795 -15.4616 -5.15385
3363 1 3.4359 -17.1795 -3.4359
3375 2 0.0 -13.7436 -3.4359
3403 1 0.0 -6.8718 -3.4359
3306 4 1.71795 -5.15385 -5.15385
3419 4 3.4359 -3.4359 -3.4359
3320 3 1.71795 -1.71795 -5.15385
3348 1 1.71795 -18.8974 -1.71795
3362 2 1.71795 -15.4616 -1.71795
3404 4 1.71795 -5.15385 -1.71795
3418 2 1.71795 -1.71795 -1.71795
3459 3 0.0 -17.1795 0.0
3474 1 1.71795 -12.0257 1.71795
3487 3 0.0 -10.3077 0.0
3488 4 1.71795 -8.58975 1.71795
3515 3 0.0 -3.4359 0.0
3558 1 1.71795 -15.4616 5.15385
3571 3 0.0 -13.7436 3.4359
3572 4 1.71795 -12.0257 5.15385
3587 1 3.4359 -10.3077 3.4359
3586 2 1.71795 -8.58975 5.15385
3599 2 0.0 -6.8718 3.4359
3655 2 0.0 -17.1795 6.8718
3656 2 1.71795 -15.4616 8.58975
3671 1 3.4359 -13.7436 6.8718
3670 4 1.71795 -12.0257 8.58975
3683 4 0.0 -10.3077 6.8718
3767 1 0.0 -13.7436 10.3077
3865 4 0.0 -13.7436 13.7436
3852 4 1.71795 -15.4616 15.4616
3949 4 0.0 -17.1795 17.1795
3965 2 3.4359 -13.7436 17.1795
3866 4 1.71795 -12.0257 15.4616
3977 1 0.0 -10.3077 17.1795
3950 4 1.71795 -15.4616 18.8974
4061 2 0.0 -13.7436 20.6154
3964 3 1.71795 -12.0257 18.8974
4177 4 6.8718 13.7436 -24.0513
4179 2 10.3077 13.7436 -24.0513
4191 1 6.8718 17.1795 -24.0513
4193 4 10.3077 17.1795 -24.0513
4705 3 0.0 0.0 -3.4359
4803 3 0.0 0.0 0.0
4804 4 1.71795 1.71795 1.71795
4817 1 0.0 3.4359 0.0
4818 1 1.71795 5.15385 1.71795
4846 3 1.71795 12.0257 1.71795
4859 4 0.0 13.7436 0.0
4860 4 1.71795 15.4616 1.71795
4901 2 0.0 0.0 3.4359
4902 3 1.71795 1.71795 5.15385
4916 2 1.71795 5.15385 5.15385
4917 2 3.4359 3.4359 3.4359
4929 1 0.0 6.8718 3.4359
4943 1 0.0 10.3077 3.4359
4944 4 1.71795 12.0257 5.15385
4959 4 3.4359 13.7436 3.4359
4958 1 1.71795 15.4616 5.15385
4971 1 0.0 17.1795 3.4359
5000 1 1.71795 1.71795 8.58975
5013 3 0.0 3.4359 6.8718
5014 1 1.71795 5.15385 8.58975
5055 1 0.0 13.7436 6.8718
5069 2 0.0 17.1795 6.8718
5097 2 0.0 0.0 10.3077
5113 2 3.4359 3.4359 10.3077
5125 1 0.0 6.8718 10.3077
5098 1 1.71795 1.71795 12.0257
5112 3 1.71795 5.15385 12.0257
5209 2 0.0 3.4359 13.7436
5255 4 6.8718 13.7436 -34.359
5257 3 10.3077 13.7436 -34.359
5269 3 6.8718 17.1795 -34.359
5271 1 10.3077 17.1795 -34.359
5339 2 6.8718 10.3077 -30.9231
5341 3 10.3077 10.3077 -30.9231
5240 2 5.15385 12.0257 -32.641
5351 4 3.4359 13.7436 -30.9231
5242 1 8.58975 12.0257 -32.641
5244 1 12.0257 12.0257 -32.641
5357 2 13.7436 13.7436 -30.9231
5254 2 5.15385 15.4616 -32.641
5365 3 3.4359 17.1795 -30.9231
5256 1 8.58975 15.4616 -32.641
5258 1 12.0257 15.4616 -32.641
5371 1 13.7436 17.1795 -30.9231
5268 3 5.15385 18.8974 -32.641
5270 1 8.58975 18.8974 -32.641
5381 2 6.8718 20.6154 -30.9231
5383 1 10.3077 20.6154 -30.9231
5272 4 12.0257 18.8974 -32.641
5437 4 6.8718 10.3077 -27.4872
5439 4 10.3077 10.3077 -27.4872
5338 3 5.15385 12.0257 -29.2052
5449 2 3.4359 13.7436 -27.4872
5340 3 8.58975 12.0257 -29.2052
5342 1 12.0257 12.0257 -29.2052
5455 2 13.7436 13.7436 -27.4872
5352 1 5.15385 15.4616 -29.2052
5463 3 3.4359 17.1795 -27.4872
5356 4 12.0257 15.4616 -29.2052
5469 1 13.7436 17.1795 -27.4872
5366 1 5.15385 18.8974 -29.2052
5368 4 8.58975 18.8974 -29.2052
5479 4 6.8718 20.6154 -27.4872
5481 2 10.3077 20.6154 -27.4872
5370 1 12.0257 18.8974 -29.2052
5436 3 5.15385 12.0257 -25.7692
5438 1 8.58975 12.0257 -25.7692
5440 3 12.0257 12.0257 -25.7692
5450 1 5.15385 15.4616 -25.7692
5452 1 8.58975 15.4616 -25.7692
5454 2 12.0257 15.4616 -25.7692
5464 1 5.15385 18.8974 -25.7692
5466 3 8.58975 18.8974 -25.7692
5468 3 12.0257 18.8974 -25.7692
