ITEM: TIMESTEP
0
ITEM: NUMBER OF ATOMS
34
ITEM: BOX BOUNDS pp pp pp
-24.0513 24.0513
-24.0513 24.0513
-24.0513 24.0513
ITEM: ATOMS id type x y z Cluster
2114 1 -1.717950 12.025700 1.717950 0
2128 1 -1.717950 15.461600 1.717950 0
2225 4 -3.435900 13.743600 3.435900 0
2212 4 -1.717950 12.025700 5.153850 0
2224 4 -5.153850 15.461600 5.153850 0
2239 2 -3.435900 17.179500 3.435900 0
2240 3 -1.717950 18.897400 5.153850 0
2323 4 -3.435900 13.743600 6.871800 0
2322 2 -5.153850 15.461600 8.589750 0
2337 3 -3.435900 17.179500 6.871800 0
2324 2 -1.717950 15.461600 8.589750 0
2419 2 -6.871800 13.743600 10.307700 1
2421 1 -3.435900 13.743600 10.307700 1
2433 2 -6.871800 17.179500 10.307700 1
2435 1 -3.435900 17.179500 10.307700 1
2517 2 -6.871800 13.743600 13.743600 1
2406 1 -5.153850 12.025700 12.025700 1
2519 3 -3.435900 13.743600 13.743600 1
2418 3 -8.589750 15.461600 12.025700 1
2531 4 -6.871800 17.179500 13.743600 1
2533 2 -3.435900 17.179500 13.743600 1
2422 1 -1.717950 15.461600 12.025700 1
2434 4 -5.153850 18.897400 12.025700 1
2518 3 -5.153850 15.461600 15.461600 1
4846 3 1.717950 12.025700 1.717950 0
4859 4 0.000000 13.743600 0.000000 0
4860 4 1.717950 15.461600 1.717950 0
4943 1 0.000000 10.307700 3.435900 0
4944 4 1.717950 12.025700 5.153850 0
4959 4 3.435900 13.743600 3.435900 0
4958 1 1.717950 15.461600 5.153850 0
4971 1 0.000000 17.179500 3.435900 0
5055 1 0.000000 13.743600 6.871800 0
5069 2 0.000000 17.179500 6.871800 0
