ITEM: TIMESTEP
0
ITEM: NUMBER OF ATOMS
13
ITEM: BOX BOUNDS pp pp pp
-24.0513 24.0513
-24.0513 24.0513
-24.0513 24.0513
ITEM: ATOMS id type x y z Cluster
2419 2 -6.8718 13.7436 10.3077 1
2421 1 -3.4359 13.7436 10.3077 1
2433 2 -6.8718 17.1795 10.3077 1
2435 1 -3.4359 17.1795 10.3077 1
2517 2 -6.8718 13.7436 13.7436 1
2406 1 -5.15385 12.0257 12.0257 1
2519 3 -3.4359 13.7436 13.7436 1
2418 3 -8.58975 15.4616 12.0257 1
2531 4 -6.8718 17.1795 13.7436 1
2533 2 -3.4359 17.1795 13.7436 1
2422 1 -1.71795 15.4616 12.0257 1
2434 4 -5.15385 18.8974 12.0257 1
2518 3 -5.15385 15.4616 15.4616 1
